LAMMPS (2 Aug 2023)
# LAMMPS script for symmetric tilt grain boundary (STGB) energy calculation in Mg

# Base directory where all 0–29 folders are located
variable baseDir string "/home/saurav/Desktop/STGB/new/cc_3/1-210/lammps/lammps_0"

# Define constants
variable minimumenergy equal -1.549           # Mg bulk energy per atom (eV)
variable conversionFactor equal 16021.7733   # eV/Å² → mJ/m²

# Initialize min energy and index tracker
variable minEnergy equal 1e6
variable minIndex equal -1

# Create output directory
shell mkdir -p output

# Loop over 30 subdirectories
variable dirIndex loop 79
label loop_start

# Path to current data file
variable dirName string ${baseDir}/${dirIndex}/coords.fulldata
variable dirName string /home/saurav/Desktop/STGB/new/cc_3/1-210/lammps/lammps_0/${dirIndex}/coords.fulldata
variable dirName string /home/saurav/Desktop/STGB/new/cc_3/1-210/lammps/lammps_0/1/coords.fulldata
print "Trying to read file: ${dirName}"
Trying to read file: /home/saurav/Desktop/STGB/new/cc_3/1-210/lammps/lammps_0/1/coords.fulldata

# ---------------- Initialize ----------------
clear
units metal
dimension 3
boundary p p p
atom_style atomic

# Read data file
read_data ${dirName}
read_data /home/saurav/Desktop/STGB/new/cc_3/1-210/lammps/lammps_0/1/coords.fulldata
Reading data file ...
  orthogonal box = (0 0 -41.670379) to (12.930492 50.662991 41.670379)
  1 by 4 by 4 MPI processor grid
  reading atoms ...
  2312 atoms
  read_data CPU = 0.010 seconds

# Interatomic potential
pair_style	meam/c
pair_coeff * *  library.meam.txt  Mg  Mg.meam.txt Mg
mass 1 24.320


# ---------------- Computes ----------------
compute csym all centro/atom 12
compute eng all pe/atom
compute eatoms all reduce sum c_eng

# ---------------- Minimization Step 1 ----------------
reset_timestep 0
thermo 10
thermo_style custom step pe lx ly lz press pxx pyy pzz c_eatoms

dump 1 all custom 25 dump.${dirIndex}_min1.lammpstrj mass type xs ys zs c_csym c_eng fx fy fz
dump 1 all custom 25 dump.1_min1.lammpstrj mass type xs ys zs c_csym c_eng fx fy fz
dump_modify 1 element Mg

min_style cg
minimize 1e-25 1e-25 10000 10000
Neighbor list info ...
  update: every = 1 steps, delay = 0 steps, check = yes
  max neighbors/atom: 2000, page size: 100000
  master list distance cutoff = 8
  ghost atom cutoff = 8
  binsize = 4, bins = 4 13 21
  3 neighbor lists, perpetual/occasional/extra = 2 1 0
  (1) pair meam/c, perpetual
      attributes: full, newton on
      pair build: full/bin        70  -3549.2184      12.930492      50.662991      83.340759     -4427.3226     -5103.3831     -5686.3952     -2492.1896     -3549.2184    
        80  -3549.2247      12.930492      50.662991      83.340759     -4426.5217     -5108.7886     -5685.899      -2484.8776     -3549.2247    
        90  -3549.2254      12.930492      50.662991      83.340759     -4427.9709     -5109.7761     -5685.2837     -2488.853      -3549.2254    
       100  -3549.2256      12.930492      50.662991      83.340759     -4427.3743     -5109.8966     -5685.1402     -2487.0862     -3549.2256    
       110  -3549.2256      12.930492      50.662991      83.340759     -4427.8309     -5109.6403     -5685.5758     -2488.2766     -3549.2256    
       120  -3549.2257      12.930492      50.662991      83.340759     -4427.7701     -5109.6864     -5686.1033     -2487.5206     -3549.2257    
       130  -3549.2257      12.930492      50.662991      83.340759     -4427.7392     -5109.7083     -5686.0356     -2487.4737     -3549.2257    
       140  -3549.2257      12.930492      50.662991      83.340759     -4427.7835     -5109.6449     -5686.131      -2487.5745     -3549.2257    
       150  -3549.2257      12.930492      50.662991      83.340759     -4427.7874     -5109.6099     -5686.0633     -2487.6888     -3549.2257    
       160  -3549.2257      12.930492      50.662991      83.340759     -4427.7935     -5109.6029     -5686.0669     -2487.7108     -3549.2257    
       170  -3549.2257      12.930492      50.662991      83.340759     -4427.7953     -5109.604      -5686.0789     -2487.7031     -3549.2257    
           12.930492      50.662991      83.340759     -4421.6707     -5100.0505     -5698.5326     -2466.4289     -3549.1797    
        70  -3549.2184      12.930492      50.662991      83.340759     -4427.3226     -5103.3831     -5686.3952     -2492.1896     -3549.2184    
        80  -3549.2247      12.930492      50.662991      83.340759     -4426.5217     -5108.7886     -5685.899      -2484.8776     -3549.2247    
        90  -3549.2254      12.930492      50.662991      83.340759     -4427.9709     -5109.7761     -5685.2837     -2488.853      -3549.2254    
       100  -3549.2256      12.930492      50.662991      83.340759     -4427.3743     -5109.8966     -5685.1402     -2487.0862     -3549.2256    
       110  -3549.2256      12.930492      50.662991      83.340759     -4427.8309     -5109.6403     -5685.5758     -2488.2766     -3549.2256    
       120  -3549.2257      12.930492      50.662991      83.340759     -4427.7701     -5109.6864     -5686.1033     -2487.5206     -3549.2257    
       130  -3549.2257      12.930492      50.662991      83.340759     -4427.7392     -5109.7083     -5686.0356     -2487.4737     -3549.2257    
       140  -3549.2257      12.930492      50.662991      83.340759     -4427.7835     -5109.6449     -5686.131      -2487.5745     -3549.2257    
       150  -3549.2257      12.930492      50.662991      83.340759     -4427.7874     -5109.6099     -5686.0633     -2487.6888     -3549.2257    
       160  -3549.2257      12.930492      50.662991      83.340759     -4427.7935     -5109.6029     -5686.0669     -2487.7108     -3549.2257    
       170  -3549.2257      12.930492      50.662991      83.340759     -4427.7953     -5109.604      -5686.0789     -2487.7031     -3549.2257    
       180  -3549.2257      12.930492      50.662991      83.340759     -4427.7971     -5109.5979     -5686.0829     -2487.7105     -3549.2257    
       190  -3549.2257      12.930492      50.662991      83.340759     -4427.7972     -5109.5973     -5686.0825     -2487.7118     -3549.2257    
       200  -3549.2257      12.930492      50.6WARNING: Dump 2 includes no atom IDs and is not sorted by ID. This may complicate post-processing tasks or visualization (../dump.cpp:221)
Setting up cg style minimization ...
  Unit style    : metal
  Current step  : 0
WARNING: Energy due to 3 extra global DOFs will be included in minimizer energies
 (../min.cpp:225)
Per MPI rank memory allocation (min/avg/max) = 10.68 | 10.7 | 10.71 Mbytes
   Step         PotEng           Lx             Ly             Lz           Press           Pxx            Pyy            Pzz          c_eatoms   
         0  -3549.2257      12.930492      50.662991      83.340759     -4427.7972     -5109.5975     -5686.0822     -2487.712      -3549.2257    
        10  -3549.2993      12.930492      50.662991      83.257418     -4077.7184     -4908.3331     -5493.6221     -1831.1999     -3549.2993    
        20  -3549.3504      12.930492      50.662991      83.174077     -3724.9332     -4705.2217     -5299.4609     -1170.1169     -3549.3504    
        30  -3549.379       12.930492      50.662991      83.090737     -3369.4268     -4500.2519     -5103.5877     -504.44097     -3549.379     
        40  -3549.3865      12.930492      50.662991      83.019254     -3064.6115     -4324.0616     -4924.2935      54.520667     -3549.3865    
        50  -3549.3881      12.930492      50.662991      83.023319     -3087.3439     -4332.9263     -4929.4846      0.37903026    -3549.3881    
        60  -3549.3889      12.930492      50.662991      83.02048      -3079.1595     -4324.9672     -4913.0934      0.58214577    -3549.3889    
        70  -3549.3891      12.930492      50.662991      83.021271     -3080.9071     -4324.5799     -4918.312       0.17050564    -3549.3891    
        80  -3549.3892      1undump 1

# ---------------- Minimization Step 2 ----------------
reset_timestep 0
fix 1 all box/relax z 0 vmax 0.0001

dump 2 all custom 25 dump.${dirIndex}_min2.lammpstrj mass type xs ys zs c_csym c_eng fx fy fz
dump 2 all custom 25 dump.1_min2.lammpstrj mass type xs ys zs c_csym c_eng fx fy fz
dump_modify 2 element Mg

min_style cg
minimize 1e-25 1e-25 10000 10000
WARNING: Dump 2 includes no atom IDs and is not sorted by ID. This may complicate post-processing tasks or visualization (../dump.cpp:221)
WARNING: Energy due to 3 extra global DOFs will be included in minimizer energies
 (../min.cpp:225)
Per MPI rank memory allocation (min/avg/max) = 10.68 | 10.7 | 10.71 Mbytes
   Step         PotEng           Lx             Ly             Lz           Press           Pxx            Pyy            Pzz          c_eatoms   
         0  -3549.2257      12.930492      50.662991      83.340759     -4427.7972     -5109.5975     -5686.0822     -2487.712      -3549.2257    
        10  -3549.2993      12.930492      50.662991      83.257418     -4077.7184     -4908.3331     -5493.6221     -1831.1999     -3549.2993    
        20  -3549.3504      12.930492      50.662991      83.174077     -3724.9332     -4705.2217     -5299.4609     -1170.1169     -3549.3504    
        30  -3549.379       12.930492      50.662991      83.090737     -3369.4268     -4500.2519     -5103.5877     -504.44097     -3549.379     
        40  -3549.3865      12.930492      50.662991      83.019254     -3064.6115     -4324.0616     -4924.2935      54.520667     -3549.3865    
        50  -3549.3881      12.930492      50.662991      83.023319     -3087.3439     -4332.9263     -4929.4846      0.37903026    -3549.3881    
        60  -3549.3889      12.930492      50.662991      83.02048      -3079.1595     -4324.9672     -4913.0934      0.58214577    -3549.3889    
        70  -3549.3891      12.930492      50.662991      83.021271     -3080.9071     -4324.5799     -4918.312       0.17050564    -3549.3891    
        80  -3549.3892      12.930492      50.662991      83.020851     -3079.6634     -4322.4605     -4916.5886      0.058711256   -3549.3892    
        90  -3549.3893       230  -3549.3894      12.930492      50.662991      83.020128     -3077.6931     -4317.761      -4915.3574      0.03917454    -3549.3894    
       240  -3549.3894      12.930492      50.662991      83.020105     -3077.6312     -4317.7508     -4915.181       0.038255943   -3549.3894    
       250  -3549.3894      12.930492      50.662991      83.020079     -3077.5296     -4317.6306     -4914.9893      0.030983128   -3549.3894    
       260  -3549.3894      12.930492      50.662991      83.020056     -3077.4488     -4317.5148     -4914.8605      0.028902867   -3549.3894    
       270  -3549.3894      12.930492      50.662991      83.020023     -3077.3371     -4317.3211     -4914.7208      0.030526978   -3549.3894    
       280  -3549.3894      12.930492      50.662991      83.020008     -3077.318      -4317.1859     -4914.7983      0.030357002   -3549.3894    
       290  -3549.3894      12.930492      50.662991      83.020005     -3077.3519     -4317.1221     -4914.9659      0.032280073   -3549.3894    
       300  -3549.3894      12.930492      50.662991      83.020017     -3077.4306     -4317.1345     -4915.1933      0.036004431   -3549.3894    
       310  -3549.3894      12.930492      50.662991      83.020063     -3077.6177     -4317.2801     -4915.6174      0.0443238     -3549.3894    
       320  -3549.3894      12.930492      50.662991      83.020113     -3077.779      -4317.4823     -4915.9008      0.046002541   -3549.3894    
       330  -3549.3894      12.930492      50.662991      83.020167     -3077.9432     -4317.8179     -4916.0594      0.047824354   -3549.3894    
       340  -3549.3894      12.930492      50.662991      83.020207     -3078.0388     -4318.0449     -4916.1185      0.046885719   -3549.3894    
       350  -3549.3894      12.930492      50.662991      83.020233     -3078.0835     -4318.2284     -4916.0624      0.040305492   -3549.3894    
       36930492      50.662991      83.020159     -3077.7756     -4317.9006     -4915.4653      0.039054076   -3549.3894    
       230  -3549.3894      12.930492      50.662991      83.020128     -3077.6931     -4317.761      -4915.3574      0.03917454    -3549.3894    
       240  -3549.3894      12.930492      50.662991      83.020105     -3077.6312     -4317.7508     -4915.181       0.038255943   -3549.3894    
       250  -3549.3894      12.930492      50.662991      83.020079     -3077.5296     -4317.6306     -4914.9893      0.030983128   -3549.3894    
       260  -3549.3894      12.930492      50.662991      83.020056     -3077.4488     -4317.5148     -4914.8605      0.028902867   -3549.3894    
       270  -3549.3894      12.930492      50.662991      83.020023     -3077.3371     -4317.3211     -4914.7208      0.030526978   -3549.3894    
       280  -3549.3894      12.930492      50.662991      83.020008     -3077.318      -4317.1859     -4914.7983      0.030357002   -3549.3894    
       290  -3549.3894      12.930492      50.662991      83.020005     -3077.3519     -4317.1221     -4914.9659      0.032280073   -3549.3894    
       300  -3549.3894      12.930492      50.662991      83.020017     -3077.4306     -4317.1345     -4915.1933      0.036004431   -3549.3894    
       310  -3549.3894      12.930492      50.662991      83.020063     -3077.6177     -4317.2801     -4915.6174      0.0443238     -3549.3894    
       320  -3549.3894      12.930492      50.662991      83.020113     -3077.779      -4317.4823     -4915.9008      0.046002541   -3549.3894    
       330  -3549.3894      12.930492      50.662991      83.020167     -3077.9432     -4317.8179     -4916.0594      0.047824354   -3549.3894    
       340  -3549.3894      12.930492      50.662991      83.020207     -3078.0388     -4318.0449     -4916.1185      0.046885719   -3549.3894    
       350  -3549.3894      12.930492      50.662991      83.020233     -3078.0835     -4318.2284     -4916.0624      0.040305492   -3549.3894    
       360  -3549.3894      12.930492      50.662991      83.020255     -3078.1196     -4318.3922     -4916.0084      0.041951462   -3549.3894    
       370  -3549.3894       510  -3549.3894      12.930492      50.662991      83.020245     -3078.1238     -4318.7643     -4915.6811      0.074075556   -3549.3894    
       520  -3549.3894      12.930492      50.662991      83.020245     -3078.1248     -4318.7828     -4915.6604      0.069003463   -3549.3894    
       530  -3549.3894      12.930492      50.662991      83.020245     -3078.1229     -4318.7953     -4915.6383      0.064789663   -3549.3894    
       540  -3549.3894      12.930492      50.662991      83.020244     -3078.1182     -4318.8026     -4915.6137      0.061722191   -3549.3894    
       550  -3549.3894      12.930492      50.662991      83.020242     -3078.1109     -4318.8061     -4915.5862      0.059562097   -3549.3894    
       560  -3549.3894      12.930492      50.662991      83.020241     -3078.1019     -4318.8071     -4915.5562      0.057713921   -3549.3894    
       570  -3549.3894      12.930492      50.662991      83.020239     -3078.0922     -4318.807      -4915.5253      0.055691048   -3549.3894    
       580  -3549.3894      12.930492      50.662991      83.020238     -3078.0829     -4318.8066     -4915.4955      0.053536402   -3549.3894    
       590  -3549.3894      12.930492      50.662991      83.020237     -3078.0743     -4318.8059     -4915.4687      0.051740926   -3549.3894    
       600  -3549.3894      12.930492      50.662991      83.020236     -3078.0667     -4318.8044     -4915.4465      0.050703764   -3549.3894    
       610  -3549.3894      12.930492      50.662991      83.020236     -3078.0604     -4318.8012     -4915.4304      0.050255804   -3549.3894    
       620  -3549.3894      12.930492      50.662991      83.020237     -3078.0558     -4318.7948     -4915.4223      0.049614907   -3549.3894    
       630  -3549.3894      12.930492      50.662991      83.020238     -3078.0532     -4318.7843     -4915.4233      0.047876399   -354 -3549.3894      12.930492      50.662991      83.020245     -3078.1206     -4318.7399     -4915.7012      0.0793963     -3549.3894    
       510  -3549.3894      12.930492      50.662991      83.020245     -3078.1238     -4318.7643     -4915.6811      0.074075556   -3549.3894    
       520  -3549.3894      12.930492      50.662991      83.020245     -3078.1248     -4318.7828     -4915.6604      0.069003463   -3549.3894    
       530  -3549.3894      12.930492      50.662991      83.020245     -3078.1229     -4318.7953     -4915.6383      0.064789663   -3549.3894    
       540  -3549.3894      12.930492      50.662991      83.020244     -3078.1182     -4318.8026     -4915.6137      0.061722191   -3549.3894    
       550  -3549.3894      12.930492      50.662991      83.020242     -3078.1109     -4318.8061     -4915.5862      0.059562097   -3549.3894    
       560  -3549.3894      12.930492      50.662991      83.020241     -3078.1019     -4318.8071     -4915.5562      0.057713921   -3549.3894    
       570  -3549.3894      12.930492      50.662991      83.020239     -3078.0922     -4318.807      -4915.5253      0.055691048   -3549.3894    
       580  -3549.3894      12.930492      50.662991      83.020238     -3078.0829     -4318.8066     -4915.4955      0.053536402   -3549.3894    
       590  -3549.3894      12.930492      50.662991      83.020237     -3078.0743     -4318.8059     -4915.4687      0.051740926   -3549.3894    
       600  -3549.3894      12.930492      50.662991      83.020236     -3078.0667     -4318.8044     -4915.4465      0.050703764   -3549.3894    
       610  -3549.3894      12.930492      50.662991      83.020236     -3078.0604     -4318.8012     -4915.4304      0.050255804   -3549.3894    
       620  -3549.3894      12.930492      50.662991      83.020237     -3078.0558     -4318.7948     -4915.4223      0.049614907   -3549.3894    
       630  -3549.3894      12.930492      50.662991      83.020238     -3078.0532     -4318.7843     -4915.4233      0.047876399   -3549.3894    
       640  -3549.3894       780  -3549.3894      12.930492      50.662991      83.020232     -3077.9741     -4318.6069     -4915.3269      0.011625744   -3549.3894    
       790  -3549.3894      12.930492      50.662991      83.020231     -3077.979      -4318.6212     -4915.3235      0.0076577585  -3549.3894    
       800  -3549.3894      12.930492      50.662991      83.020238     -3078.0256     -4318.589      -4915.4915      0.0037774986  -3549.3894    
       810  -3549.3894      12.930492      50.662991      83.020242     -3078.0479     -4318.4975     -4915.6499      0.0036051148  -3549.3894    
       820  -3549.3894      12.930492      50.662991      83.020238     -3078.0315     -4318.5887     -4915.5197      0.013913588   -3549.3894    
       830  -3549.3894      12.930492      50.662991      83.020234     -3078.0086     -4318.5962     -4915.4505      0.020880242   -3549.3894    
       840  -3549.3894      12.930492      50.662991      83.020238     -3078.0172     -4318.6572     -4915.4225      0.028190807   -3549.3894    
       850  -3549.3894      12.930492      50.662991      83.020241     -3078.0209     -4318.7004     -4915.3886      0.026378198   -3549.3894    
       860  -3549.3894      12.930492      50.662991      83.020247     -3078.0589     -4318.6895     -4915.5106      0.023256177   -3549.3894    
       870  -3549.3894      12.930492      50.662991      83.020247     -3078.0633     -4318.6619     -4915.549       0.020933379   -3549.3894    
       880  -3549.3894      12.930492      50.662991      83.020254     -3078.1008     -4318.6917     -4915.6311      0.020317529   -3549.3894    
       890  -3549.3894      12.930492      50.662991      83.020258     -3078.1166     -4318.7246     -4915.6468      0.021558921   -3549.3894    
       900  -3549.3894      12.930492      50.662991      83.020261     -3078.1161     -4318.7097     -4915.6593      0.0206258     -3549.3894    
       910  -3549.3894      12.930492      50.662991      83.020264     -3078.1234     -4318.7264     -4915.6633    3894    
       780  -3549.3894      12.930492      50.662991      83.020232     -3077.9741     -4318.6069     -4915.3269      0.011625744   -3549.3894    
       790  -3549.3894      12.930492      50.662991      83.020231     -3077.979      -4318.6212     -4915.3235      0.0076577585  -3549.3894    
       800  -3549.3894      12.930492      50.662991      83.020238     -3078.0256     -4318.589      -4915.4915      0.0037774986  -3549.3894    
       810  -3549.3894      12.930492      50.662991      83.020242     -3078.0479     -4318.4975     -4915.6499      0.0036051148  -3549.3894    
       820  -3549.3894      12.930492      50.662991      83.020238     -3078.0315     -4318.5887     -4915.5197      0.013913588   -3549.3894    
       830  -3549.3894      12.930492      50.662991      83.020234     -3078.0086     -4318.5962     -4915.4505      0.020880242   -3549.3894    
       840  -3549.3894      12.930492      50.662991      83.020238     -3078.0172     -4318.6572     -4915.4225      0.028190807   -3549.3894    
       850  -3549.3894      12.930492      50.662991      83.020241     -3078.0209     -4318.7004     -4915.3886      0.026378198   -3549.3894    
       860  -3549.3894      12.930492      50.662991      83.020247     -3078.0589     -4318.6895     -4915.5106      0.023256177   -3549.3894    
       870  -3549.3894      12.930492      50.662991      83.020247     -3078.0633     -4318.6619     -4915.549       0.020933379   -3549.3894    
       880  -3549.3894      12.930492      50.662991      83.020254     -3078.1008     -4318.6917     -4915.6311      0.020317529   -3549.3894    
       890  -3549.3894      12.930492      50.662991      83.020258     -3078.1166     -4318.7246     -4915.6468      0.021558921   -3549.3894    
       900  -3549.3894      12.930492      50.662991      83.020261     -3078.1161     -4318.7097     -4915.6593      0.0206258     -3549.3894    
       910  -3549.3894      12.930492      50.662991      83.020264     -3078.1234     -4318.7264     -4915.6633      0.019698944   -3549.3894    
       920  -3549.3894      1060  -3549.3894      12.930492      50.662991      83.0202       -3077.908      -4318.3316     -4915.4003      0.0078269578  -3549.3894    
      1070  -3549.3894      12.930492      50.662991      83.020201     -3077.9074     -4318.3198     -4915.4103      0.0079908219  -3549.3894    
      1080  -3549.3894      12.930492      50.662991      83.020202     -3077.9112     -4318.3197     -4915.4218      0.0080880495  -3549.3894    
      1090  -3549.3894      12.930492      50.662991      83.020203     -3077.9106     -4318.313      -4915.4268      0.0080053691  -3549.3894    
      1100  -3549.3894      12.930492      50.662991      83.020202     -3077.9071     -4318.3046     -4915.4253      0.0087042989  -3549.3894    
      1110  -3549.3894      12.930492      50.662991      83.020203     -3077.9088     -4318.3145     -4915.4208      0.0089385303  -3549.3894    
      1120  -3549.3894      12.930492      50.662991      83.020205     -3077.9149     -4318.3414     -4915.4128      0.0095442345  -3549.3894    
      1130  -3549.3894      12.930492      50.662991      83.020207     -3077.9206     -4318.3689     -4915.4022      0.0093692375  -3549.3894    
      1140  -3549.3894      12.930492      50.662991      83.020209     -3077.9264     -4318.3913     -4915.3974      0.0093587986  -3549.3894    
      1150  -3549.3894      12.930492      50.662991      83.020211     -3077.9345     -4318.4083     -4915.404       0.0087511997  -3549.3894    
      1160  -3549.3894      12.930492      50.662991      83.020213     -3077.942      -4318.4165     -4915.4183      0.008927446   -3549.3894    
      1170  -3549.3894      12.930492      50.662991      83.020215     -3077.9464     -4318.4133     -4915.4346      0.008726927   -3549.3894    
      1180  -3549.3894      12.930492      50.662991      83.020216     -3077.9506     -4318.4046     -4915.4565      0.0092159895  -3549.3894    
      1190  -3549.3894      12.930492      50.662991      83.020218     -3077.9575     -4318.4030.007783685   -3549.3894    
      1060  -3549.3894      12.930492      50.662991      83.0202       -3077.908      -4318.3316     -4915.4003      0.0078269578  -3549.3894    
      1070  -3549.3894      12.930492      50.662991      83.020201     -3077.9074     -4318.3198     -4915.4103      0.0079908219  -3549.3894    
      1080  -3549.3894      12.930492      50.662991      83.020202     -3077.9112     -4318.3197     -4915.4218      0.0080880495  -3549.3894    
      1090  -3549.3894      12.930492      50.662991      83.020203     -3077.9106     -4318.313      -4915.4268      0.0080053691  -3549.3894    
      1100  -3549.3894      12.930492      50.662991      83.020202     -3077.9071     -4318.3046     -4915.4253      0.0087042989  -3549.3894    
      1110  -3549.3894      12.930492      50.662991      83.020203     -3077.9088     -4318.3145     -4915.4208      0.0089385303  -3549.3894    
      1120  -3549.3894      12.930492      50.662991      83.020205     -3077.9149     -4318.3414     -4915.4128      0.0095442345  -3549.3894    
      1130  -3549.3894      12.930492      50.662991      83.020207     -3077.9206     -4318.3689     -4915.4022      0.0093692375  -3549.3894    
      1140  -3549.3894      12.930492      50.662991      83.020209     -3077.9264     -4318.3913     -4915.3974      0.0093587986  -3549.3894    
      1150  -3549.3894      12.930492      50.662991      83.020211     -3077.9345     -4318.4083     -4915.404       0.0087511997  -3549.3894    
      1160  -3549.3894      12.930492      50.662991      83.020213     -3077.942      -4318.4165     -4915.4183      0.008927446   -3549.3894    
      1170  -3549.3894      12.930492      50.662991      83.020215     -3077.9464     -4318.4133     -4915.4346      0.008726927   -3549.3894    
      1180  -3549.3894      12.930492      50.662991      83.020216     -3077.9506     -4318.4046     -4915.4565      0.0092159895  -3549.3894    
      1190  -3549.3894      12.930492      50.662991      83.020218     -3077.9575     -4318.403      -4915.4786      0.0092001754  -3549.3894    
      1200  -3549.3894      1340  -3549.3894      12.930492      50.662991      83.020219     -3077.9663     -4318.4947     -4915.4122      0.0079941692  -3549.3894    
      1350  -3549.3894      12.930492      50.662991      83.020221     -3077.9761     -4318.4909     -4915.4457      0.0081421086  -3549.3894    
      1360  -3549.3894      12.930492      50.662991      83.020223     -3077.9845     -4318.4903     -4915.4708      0.0076089516  -3549.3894    
      1370  -3549.3894      12.930492      50.662991      83.020224     -3077.9921     -4318.4927     -4915.4909      0.0074103707  -3549.3894    
      1380  -3549.3894      12.930492      50.662991      83.020225     -3077.9985     -4318.4953     -4915.5073      0.0069562404  -3549.3894    
      1390  -3549.3894      12.930492      50.662991      83.020227     -3078.0047     -4318.4978     -4915.5237      0.0073388211  -3549.3894    
      1400  -3549.3894      12.930492      50.662991      83.02023      -3078.0127     -4318.5039     -4915.5406      0.0064048535  -3549.3894    
      1410  -3549.3894      12.930492      50.662991      83.020232     -3078.0197     -4318.5134     -4915.5519      0.0060954271  -3549.3894    
      1420  -3549.3894      12.930492      50.662991      83.020234     -3078.0249     -4318.5236     -4915.5566      0.0056568421  -3549.3894    
      1430  -3549.3894      12.930492      50.662991      83.020234     -3078.0252     -4318.5271     -4915.5535      0.0050835677  -3549.3894    
      1440  -3549.3894      12.930492      50.662991      83.020234     -3078.0219     -4318.5239     -4915.5469      0.005203624   -3549.3894    
      1450  -3549.3894      12.930492      50.662991      83.020234     -3078.0199     -4318.5197     -4915.5447      0.0048473798  -3549.3894    
      1460  -3549.3894      12.930492      50.662991      83.020234     -3078.0208     -4318.5178     -4915.5496      0.0048944268  -3549.3894    
      1470  -3549.3894      12.930492      50.662991      83.020234     -307    -4915.3754      0.0081408738  -3549.3894    
      1340  -3549.3894      12.930492      50.662991      83.020219     -3077.9663     -4318.4947     -4915.4122      0.0079941692  -3549.3894    
      1350  -3549.3894      12.930492      50.662991      83.020221     -3077.9761     -4318.4909     -4915.4457      0.0081421086  -3549.3894    
      1360  -3549.3894      12.930492      50.662991      83.020223     -3077.9845     -4318.4903     -4915.4708      0.0076089516  -3549.3894    
      1370  -3549.3894      12.930492      50.662991      83.020224     -3077.9921     -4318.4927     -4915.4909      0.0074103707  -3549.3894    
      1380  -3549.3894      12.930492      50.662991      83.020225     -3077.9985     -4318.4953     -4915.5073      0.0069562404  -3549.3894    
      1390  -3549.3894      12.930492      50.662991      83.020227     -3078.0047     -4318.4978     -4915.5237      0.0073388211  -3549.3894    
      1400  -3549.3894      12.930492      50.662991      83.02023      -3078.0127     -4318.5039     -4915.5406      0.0064048535  -3549.3894    
      1410  -3549.3894      12.930492      50.662991      83.020232     -3078.0197     -4318.5134     -4915.5519      0.0060954271  -3549.3894    
      1420  -3549.3894      12.930492      50.662991      83.020234     -3078.0249     -4318.5236     -4915.5566      0.0056568421  -3549.3894    
      1430  -3549.3894      12.930492      50.662991      83.020234     -3078.0252     -4318.5271     -4915.5535      0.0050835677  -3549.3894    
      1440  -3549.3894      12.930492      50.662991      83.020234     -3078.0219     -4318.5239     -4915.5469      0.005203624   -3549.3894    
      1450  -3549.3894      12.930492      50.662991      83.020234     -3078.0199     -4318.5197     -4915.5447      0.0048473798  -3549.3894    
      1460  -3549.3894      12.930492      50.662991      83.020234     -3078.0208     -4318.5178     -4915.5496      0.0048944268  -3549.3894    
      1470  -3549.3894      12.930492      50.662991      83.020234     -3078.0227     -4318.516      -4915.5571      0.0048429004  -3549.3894    
      1480  -3549.3894      1620  -3549.3894      12.930492      50.662991      83.020223     -3077.9901     -4318.453      -4915.5225      0.005264868   -3549.3894    
      1630  -3549.3894      12.930492      50.662991      83.020223     -3077.9886     -4318.4522     -4915.5185      0.0049915421  -3549.3894    
      1640  -3549.3894      12.930492      50.662991      83.020223     -3077.9865     -4318.4532     -4915.5115      0.0051139882  -3549.3894    
      1650  -3549.3894      12.930492      50.662991      83.020223     -3077.9846     -4318.4542     -4915.5052      0.0054229184  -3549.3894    
      1660  -3549.3894      12.930492      50.662991      83.020223     -3077.9842     -4318.4524     -4915.5055      0.005317892   -3549.3894    
      1670  -3549.3894      12.930492      50.662991      83.020223     -3077.9836     -4318.448      -4915.5085      0.0058044605  -3549.3894    
      1680  -3549.3894      12.930492      50.662991      83.020223     -3077.982      -4318.4464     -4915.5054      0.0057113045  -3549.3894    
      1690  -3549.3894      12.930492      50.662991      83.020223     -3077.98       -4318.4512     -4915.4948      0.0059654237  -3549.3894    
      1700  -3549.3894      12.930492      50.662991      83.020224     -3077.98       -4318.4608     -4915.4853      0.0059840707  -3549.3894    
      1710  -3549.3894      12.930492      50.662991      83.020224     -3077.9829     -4318.4702     -4915.4847      0.0060644353  -3549.3894    
      1720  -3549.3894      12.930492      50.662991      83.020225     -3077.9868     -4318.4781     -4915.4884      0.0060895962  -3549.3894    
      1730  -3549.3894      12.930492      50.662991      83.020226     -3077.9886     -4318.4834     -4915.4882      0.0058809868  -3549.3894    
      1740  -3549.3894      12.930492      50.662991      83.020226     -3077.988      -4318.4855     -4915.4845      0.005947118   -3549.3894    
      1750  -3549.3894      12.930492      50.662991    9921     -4318.4549     -4915.5259      0.0045370133  -3549.3894    
      1620  -3549.3894      12.930492      50.662991      83.020223     -3077.9901     -4318.453      -4915.5225      0.005264868   -3549.3894    
      1630  -3549.3894      12.930492      50.662991      83.020223     -3077.9886     -4318.4522     -4915.5185      0.0049915421  -3549.3894    
      1640  -3549.3894      12.930492      50.662991      83.020223     -3077.9865     -4318.4532     -4915.5115      0.0051139882  -3549.3894    
      1650  -3549.3894      12.930492      50.662991      83.020223     -3077.9846     -4318.4542     -4915.5052      0.0054229184  -3549.3894    
      1660  -3549.3894      12.930492      50.662991      83.020223     -3077.9842     -4318.4524     -4915.5055      0.005317892   -3549.3894    
      1670  -3549.3894      12.930492      50.662991      83.020223     -3077.9836     -4318.448      -4915.5085      0.0058044605  -3549.3894    
      1680  -3549.3894      12.930492      50.662991      83.020223     -3077.982      -4318.4464     -4915.5054      0.0057113045  -3549.3894    
      1690  -3549.3894      12.930492      50.662991      83.020223     -3077.98       -4318.4512     -4915.4948      0.0059654237  -3549.3894    
      1700  -3549.3894      12.930492      50.662991      83.020224     -3077.98       -4318.4608     -4915.4853      0.0059840707  -3549.3894    
      1710  -3549.3894      12.930492      50.662991      83.020224     -3077.9829     -4318.4702     -4915.4847      0.0060644353  -3549.3894    
      1720  -3549.3894      12.930492      50.662991      83.020225     -3077.9868     -4318.4781     -4915.4884      0.0060895962  -3549.3894    
      1730  -3549.3894      12.930492      50.662991      83.020226     -3077.9886     -4318.4834     -4915.4882      0.0058809868  -3549.3894    
      1740  -3549.3894      12.930492      50.662991      83.020226     -3077.988      -4318.4855     -4915.4845      0.005947118   -3549.3894    
      1750  -3549.3894      12.930492      50.662991      83.020226     -3077.9873     -4318.4839     -4915.4836      0.0056527052  -3549.3894    
      1760  -3549.3894      1900  -3549.3894      12.930492      50.662991      83.020222     -3077.9813     -4318.4603     -4915.4874      0.0037518189  -3549.3894    
      1910  -3549.3894      12.930492      50.662991      83.020221     -3077.9801     -4318.4546     -4915.4895      0.0038080573  -3549.3894    
      1920  -3549.3894      12.930492      50.662991      83.020221     -3077.978      -4318.4533     -4915.4843      0.0035396537  -3549.3894    
      1930  -3549.3894      12.930492      50.662991      83.02022      -3077.9745     -4318.4527     -4915.4744      0.0035357002  -3549.3894    
      1940  -3549.3894      12.930492      50.662991      83.02022      -3077.9708     -4318.4492     -4915.4666      0.0034911099  -3549.3894    
      1950  -3549.3894      12.930492      50.662991      83.020219     -3077.9683     -4318.4446     -4915.4636      0.0034364671  -3549.3894    
      1960  -3549.3894      12.930492      50.662991      83.020219     -3077.9666     -4318.4427     -4915.4604      0.0034020468  -3549.3894    
      1970  -3549.3894      12.930492      50.662991      83.020218     -3077.9648     -4318.4438     -4915.454       0.0033511118  -3549.3894    
      1980  -3549.3894      12.930492      50.662991      83.020218     -3077.9631     -4318.4446     -4915.4481      0.0033526497  -3549.3894    
      1990  -3549.3894      12.930492      50.662991      83.020218     -3077.9629     -4318.4427     -4915.4491      0.0031942937  -3549.3894    
      2000  -3549.3894      12.930492      50.662991      83.020218     -3077.9644     -4318.4394     -4915.4571      0.0032596577  -3549.3894    
      2010  -3549.3894      12.930492      50.662991      83.020218     -3077.9667     -4318.437      -4915.4662      0.0031469363  -3549.3894    
      2020  -3549.3894      12.930492      50.662991      83.020218     -3077.9675     -4318.4349     -4915.4708      0.0031720523  -3549.3894    
      2030  -3549.3894      12.9304983.020222     -3077.9827     -4318.4678     -4915.4844      0.0038917134  -3549.3894    
      1900  -3549.3894      12.930492      50.662991      83.020222     -3077.9813     -4318.4603     -4915.4874      0.0037518189  -3549.3894    
      1910  -3549.3894      12.930492      50.662991      83.020221     -3077.9801     -4318.4546     -4915.4895      0.0038080573  -3549.3894    
      1920  -3549.3894      12.930492      50.662991      83.020221     -3077.978      -4318.4533     -4915.4843      0.0035396537  -3549.3894    
      1930  -3549.3894      12.930492      50.662991      83.02022      -3077.9745     -4318.4527     -4915.4744      0.0035357002  -3549.3894    
      1940  -3549.3894      12.930492      50.662991      83.02022      -3077.9708     -4318.4492     -4915.4666      0.0034911099  -3549.3894    
      1950  -3549.3894      12.930492      50.662991      83.020219     -3077.9683     -4318.4446     -4915.4636      0.0034364671  -3549.3894    
      1960  -3549.3894      12.930492      50.662991      83.020219     -3077.9666     -4318.4427     -4915.4604      0.0034020468  -3549.3894    
      1970  -3549.3894      12.930492      50.662991      83.020218     -3077.9648     -4318.4438     -4915.454       0.0033511118  -3549.3894    
      1980  -3549.3894      12.930492      50.662991      83.020218     -3077.9631     -4318.4446     -4915.4481      0.0033526497  -3549.3894    
      1990  -3549.3894      12.930492      50.662991      83.020218     -3077.9629     -4318.4427     -4915.4491      0.0031942937  -3549.3894    
      2000  -3549.3894      12.930492      50.662991      83.020218     -3077.9644     -4318.4394     -4915.4571      0.0032596577  -3549.3894    
      2010  -3549.3894      12.930492      50.662991      83.020218     -3077.9667     -4318.437      -4915.4662      0.0031469363  -3549.3894    
      2020  -3549.3894      12.930492      50.662991      83.020218     -3077.9675     -4318.4349     -4915.4708      0.0031720523  -3549.3894    
      2030  -3549.3894      12.930492      50.662991      83.020218     -3077.967      -4318.431      -4915.473       0.0031006069  -3549.3894    
      2040  -3549.3894      2180  -3549.3894      12.930492      50.662991      83.020223     -3077.9814     -4318.4579     -4915.49        0.003650366   -3549.3894    
      2190  -3549.3894      12.930492      50.662991      83.020223     -3077.9829     -4318.4586     -4915.4939      0.0037415965  -3549.3894    
      2200  -3549.3894      12.930492      50.662991      83.020224     -3077.9845     -4318.4637     -4915.4932      0.0035622322  -3549.3894    
      2210  -3549.3894      12.930492      50.662991      83.020224     -3077.9858     -4318.4699     -4915.4914      0.0037980327  -3549.3894    
      2220  -3549.3894      12.930492      50.662991      83.020225     -3077.9875     -4318.4732     -4915.4934      0.0039739055  -3549.3894    
      2230  -3549.3894      12.930492      50.662991      83.020225     -3077.9895     -4318.4732     -4915.4992      0.0038683454  -3549.3894    
      2240  -3549.3894      12.930492      50.662991      83.020226     -3077.9915     -4318.4751     -4915.5037      0.004178953   -3549.3894    
      2250  -3549.3894      12.930492      50.662991      83.020227     -3077.994      -4318.4825     -4915.5034      0.0040096271  -3549.3894    
      2260  -3549.3894      12.930492      50.662991      83.020228     -3077.9959     -4318.4913     -4915.5005      0.0041032679  -3549.3894    
      2270  -3549.3894      12.930492      50.662991      83.020229     -3077.9978     -4318.4964     -4915.5006      0.0037756609  -3549.3894    
      2280  -3549.3894      12.930492      50.662991      83.020229     -3077.9993     -4318.4966     -4915.5047      0.0034536631  -3549.3894    
      2290  -3549.3894      12.930492      50.662991      83.02023      -3078.0011     -4318.4971     -4915.5097      0.0036708115  -3549.3894    
      2300  -3549.3894      12.930492      50.662991      83.02023      -3078.0037     -4318.5019     -4915.5124      0.0032220398  -3549.3894    
      2310  -354     50.662991      83.020223     -3077.9796     -4318.4591     -4915.4835      0.0036619431  -3549.3894    
      2180  -3549.3894      12.930492      50.662991      83.020223     -3077.9814     -4318.4579     -4915.49        0.003650366   -3549.3894    
      2190  -3549.3894      12.930492      50.662991      83.020223     -3077.9829     -4318.4586     -4915.4939      0.0037415965  -3549.3894    
      2200  -3549.3894      12.930492      50.662991      83.020224     -3077.9845     -4318.4637     -4915.4932      0.0035622322  -3549.3894    
      2210  -3549.3894      12.930492      50.662991      83.020224     -3077.9858     -4318.4699     -4915.4914      0.0037980327  -3549.3894    
      2220  -3549.3894      12.930492      50.662991      83.020225     -3077.9875     -4318.4732     -4915.4934      0.0039739055  -3549.3894    
      2230  -3549.3894      12.930492      50.662991      83.020225     -3077.9895     -4318.4732     -4915.4992      0.0038683454  -3549.3894    
      2240  -3549.3894      12.930492      50.662991      83.020226     -3077.9915     -4318.4751     -4915.5037      0.004178953   -3549.3894    
      2250  -3549.3894      12.930492      50.662991      83.020227     -3077.994      -4318.4825     -4915.5034      0.0040096271  -3549.3894    
      2260  -3549.3894      12.930492      50.662991      83.020228     -3077.9959     -4318.4913     -4915.5005      0.0041032679  -3549.3894    
      2270  -3549.3894      12.930492      50.662991      83.020229     -3077.9978     -4318.4964     -4915.5006      0.0037756609  -3549.3894    
      2280  -3549.3894      12.930492      50.662991      83.020229     -3077.9993     -4318.4966     -4915.5047      0.0034536631  -3549.3894    
      2290  -3549.3894      12.930492      50.662991      83.02023      -3078.0011     -4318.4971     -4915.5097      0.0036708115  -3549.3894    
      2300  -3549.3894      12.930492      50.662991      83.02023      -3078.0037     -4318.5019     -4915.5124      0.0032220398  -3549.3894    
      2310  -3549.3894      12.930492      50.662991      83Modify  | 0          | 0          | 0          |   0.0 |  0.00
Other   |            | 0.5584     |            |       |  2.36

Nlocal:          144.5 ave         152 max         140 min
Histogram: 6 0 0 3 0 0 6 0 0 1
Nghost:        1078.81 ave        1093 max        1068 min
Histogram: 3 2 1 2 0 0 6 0 1 1
Neighs:        6338.25 ave        6684 max        5952 min
Histogram: 2 2 0 2 1 2 1 4 0 2
FullNghs:      12676.5 ave       13536 max       11892 min
Histogram: 1 3 0 3 2 1 2 2 1 1

Total # of neighbors = 202824
Ave neighs/atom = 87.726644
Neighbor list builds = 0
Dangerous builds = 0
Directory 1: GB energy = 390.073276629311 mJ/m^2
New minimum energy found at directory 1: 390.073276629311 mJ/m^2
Trying to read file: /home/saurav/Desktop/STGB/new/cc_3/1-210/lammps/lammps_0/2/coords.fulldata
Reading data file ...
  orthogonal box = (0 0 -41.670379) to (12.930492 50.662991 41.670379)
  1 by 4 by 4 MPI processor grid
  reading atoms ...
  2292 atoms
  read_data CPU = 0.007 seconds
Neighbor list info ...
  update: every = 1 steps, delay = 0 steps, check = yes
  max neighbors/atom: 2000, page size: 100000
  master list distance cutoff = 8
  ghost atom cutoff = 8
  binsize = 4, bins = 4 13 21
  3 neighbor lists, perpetual/occasional/extra = 2 1 0
  (1) pair meam/c, perpetual
      attributes: full, newton on
      pair build: full/bin/atomonly
      stencil: full/bin/3d
      bin: standard
  (2) pair meam/c, perpetual, half/full from (1)
      attributes: half, newton on
      pair build: halffull/newton
      stencil: none
      bin: none
  (3) compute centro/atom, occasional, copy from (1)
      attributes: full, newton on
      pair build: copy
      stencil: none
      bin: none
WARNING: Dump 1 includes no atom IDs and is not sorted by ID. This may complicate post-processing tasks or visualization (../dump.cpp:221)
Setting up cg style minimization ...
  Unit style    : metal
  Current step  : 0
Per MPI rank memory allocation (min/avg/max) = 10.05 | 10.06 | 10.07 Mbytes
   Step         PotEng           Lx             Ly             Lz           Press           Pxx            Pyy            Pzz          c_eatoms   
         0  -3039.3209      12.930492      50.662991      83.340759      6800.6639     -15996.274      4177.7545      32220.511     -3039.3209    
        10  -3482.861       12.930492      50.662991      83.340759     -4798.0706     -10152.609     -3258.93       -982.6724      -3482.861     
        20  -3514.0068      12.930492      50.662991      83.340759     -6770.1387     -6973.5331     -7290.0612     -6046.822      -3514.0068    
        30  -3518.4702      12.930492      50.662991      83.340759     -7337.6546     -7145.7998     -8072.2004     -6794.9637     -3518.4702    
        40  -3521.4516      12.930492      50.662991      83.340759     -7617.9678     -7321.295      -8385.8786     -7146.7297     -3521.4516    
        50  -3522.9291      12.930492      50.662991      83.340759     -7669.3987     -7415.6906     -8653.5241     -6938.9815     -3522.9291    
        60  -3524.0624      12.930492      50.662991      83.340759     -7736.1147     -7465.4207     -8620.1695     -7122.7539     -3524.0624    
        70  -3524.2962      12.930492      50.662991      83.340759     -7754.3432     -7484.9907     -8590.2218     -7187.817      -3524.2962    
        80  -3524.3372      12.930492      50.662991      83.340759     -7750.7869     -7477.0057     -8598.469      -7176.8859     -3524.3372    
        90  -3524.3461      12.930492      50.662991      83.340759     -7749.7385     -7476.427      -8597.1511     -7175.6374     -3524.3461    
       100  -3524.3488      12.930492      50.662991      83.340759     -7752.5967     -7477.8263     -8596.5806     -7183.3831     -3524.3488    
       110  -3524.3493      12.930492      50.662991      83.340759     -7755.1346     -7479.5007     -8594.9893     -7190.9136     -3524.3493    
       120  -3524.3494      12.930492      50.662991      83.340759     -7756.0684     -7480.2494     -8594.0795     -7193.8765     -3524.3494    
       130  -3524.3494      12.930492      50.662991      83.340759     -7756.5575     -7480.5954     -8593.7198     -7195.3573     -3524.3494    
       140  -3524.3494      12.930492      50.662991      83.340759     -7756.614      -7480.559      -8593.6763     -7195.6066     -3524.3494    
       150  -3524.3494      12.930492      50.662991      83.340759     -7756.6378     -7480.5517     -8593.6862     -7195.6753     -3524.3494    
       160  -3524.3494      12.930492      50.662991      83.340759     -7756.6252     -7480.5268     -8593.6989     -7195.6501     -3524.3494    
       170  -3524.3494      12.930492      50.662991      83.340759     -7756.6323     -7480.5202     -8593.7017     -7195.675      -3524.3494    
       180  -3524.3494      12.930492      50.662991      83.340759     -7756.6425     -7480.532      -8593.6899     -7195.7057     -3524.3494    
       190  -3524.3494      12.930492      50.662991      83.340759     -7756.6485     -7480.5332     -8593.6901     -7195.7223     -3524.3494    
       200  -3524.3494      12.930492      50.662991      83.340759     -7756.6496     -7480.5351     -8593.6881     -7195.7255     -3524.3494    
       210  -3524.3494      12.930492      50.662991      83.340759     -7756.6502     -7480.5353     -8593.6885     -7195.727      -3524.3494    
       220  -3524.3494      12.930492      50.662991      83.340759     -7756.6506     -7480.5355     -8593.6886     -7195.7277     -3524.3494    
       230  -3524.3494      12.930492      50.662991      83.340759     -7756.6506     -7480.5355     -8593.6886     -7195.7278     -3524.3494    
       240  -3524.3494      12.930492      50.662991      83.340759     -7756.6507     -7480.5355     -8593.6885     -7195.728      -3524.3494    
Loop time of 1.93356 on 16 procs for 240 steps with 2292 atoms

93.9% CPU use with 16 MPI tasks x no OpenMP threads

Minimization stats:
  Stopping criterion = energy tolerance
  Energy initial, next-to-last, final = 
     -3039.32091782149   -3524.3494440853   -3524.3494440853
  Force two-norm initial, final = 377.4869 5.6097984e-07
  Force max component initial, final = 96.800721 8.9210624e-08
  Final line search alpha, max atom move = 1 8.9210624e-08
  Iterations, force evaluations = 240 445

MPI task timing breakdown:
Section |  min time  |  avg time  |  max time  |%varavg| %total
---------------------------------------------------------------
Pair    | 1.7596     | 1.7983     | 1.8435     |   1.8 | 93.00
Neigh   | 0.0016145  | 0.0016707  | 0.0017375  |   0.1 |  0.09
Comm    | 0.048165   | 0.092393   | 0.13242    |   8.1 |  4.78
Output  | 0.013029   | 0.014644   | 0.019048   |   1.2 |  0.76
Modify  | 0          | 0          | 0          |   0.0 |  0.00
Other   |            | 0.02656    |            |       |  1.37

Nlocal:         143.25 ave         148 max         132 min
Histogram: 1 0 0 0 0 4 0 7 0 4
Nghost:        1072.12 ave        1088 max        1054 min
Histogram: 2 1 0 2 0 2 5 2 1 1
Neighs:        6176.75 ave        6460 max        5684 min
Histogram: 1 0 0 2 2 0 3 3 2 3
FullNghs:      12353.5 ave       12992 max       11384 min
Histogram: 1 0 0 3 1 2 3 2 3 1

Total # of neighbors = 197656
Ave neighs/atom = 86.237347
Neighbor list builds = 3
Dangerous builds = 0
WARNING: Dump 2 includes no atom IDs and is not sorted by ID. This may complicate post-processing tasks or visualization (../dump.cpp:221)
Setting up cg style minimization ...
  Unit style    : metal
  Current step  : 0
WARNING: Energy due to 3 extra global DOFs will be included in minimizer energies
 (../min.cpp:225)
Per MPI rank memory allocation (min/avg/max) = 10.69 | 10.7 | 10.71 Mbytes
   Step         PotEng           Lx             Ly             Lz           Press           Pxx            Pyy            Pzz          c_eatoms   
         0  -3524.3494      12.930492      50.662991      83.340759     -7756.6507     -7480.5355     -8593.6885     -7195.728      -3524.3494    
        10  -3524.584       12.930492      50.662991      83.257418     -7424.4608     -7294.6996     -8409.1967     -6569.4863     -3524.584     
        20  -3524.7971      12.930492      50.662991      83.174077     -7089.6434     -7107.0902     -8222.9985     -5938.8417     -3524.7971    
        30  -3524.9887      12.930492      50.662991      83.090737     -6752.1837     -6917.6947     -8035.082      -5303.7745     -3524.9887    
        40  -3525.1585      12.930492      50.662991      83.007396     -6412.0669     -6726.5007     -7845.4351     -4664.2649     -3525.1585    
        50  -3525.3065      12.930492      50.662991      82.924055     -6069.2778     -6533.4951     -7654.046      -4020.2923     -3525.3065    
        60  -3525.4325      12.930492      50.662991      82.840714     -5723.8014     -6338.6651     -7460.9027     -3371.8365     -3525.4325    
        70  -3525.5363      12.930492      50.662991      82.757374     -5375.6228     -6141.9982     -7265.993      -2718.8772     -3525.5363    
        80  -3525.6177      12.930492      50.662991      82.674033     -5024.7269     -5943.4817     -7069.3051     -2061.3937     -3525.6177    
        90  -3525.6767      12.930492      50.662991      82.590692     -4671.098      -5743.1026     -6870.827      -1399.3643     -3525.6767    
       100  -3525.713       12.930492      50.662991      82.507351     -4314.7214     -5540.849      -6670.5464     -732.76893     -3525.713     
       110  -3525.7266      12.930492      50.662991      82.424011     -3955.5836     -5336.7093     -6468.4489     -61.592523     -3525.7266    
       120  -3525.7563      12.930492      50.662991      82.400228     -3881.2524     -5291.2567     -6351.288      -1.2125344     -3525.7563    
       130  -3525.7653      12.930492      50.662991      82.387807     -3839.8374     -5265.9057     -6294.8086      41.20213      -3525.7653    
       140  -3525.7659      12.930492      50.662991      82.387739     -3845.1781     -5266.5454     -6280.7696      11.78057      -3525.7659    
       150  -3525.766       12.930492      50.662991      82.386768     -3843.5793     -5264.8396     -6271.8025      5.9042783     -3525.766     
       160  -3525.7692      12.930492      50.662991      82.387231     -3846.8852     -5269.7028     -6271.1431      0.19041407    -3525.7692    
       170  -3525.7709      12.930492      50.662991      82.389329     -3853.574      -5277.0715     -6283.3311     -0.31949353    -3525.7709    
       180  -3525.771       12.930492      50.662991      82.38985      -3855.1779     -5278.7082     -6286.4631     -0.36241867    -3525.771     
       190  -3525.771       12.930492      50.662991      82.390032     -3855.7194     -5279.0733     -6287.6165     -0.4684112     -3525.771     
       200  -3525.771       12.930492      50.662991      82.390183     -3856.1721     -5279.1639     -6288.6336     -0.71886308    -3525.771     
       210  -3525.771       12.930492      50.662991      82.390363     -3856.7155     -5279.0956     -6289.9447     -1.1060574     -3525.771     
       220  -3525.771       12.930492      50.662991      82.390573     -3857.3385     -5278.8861     -6291.605      -1.5243857     -3525.771     
       230  -3525.771       12.930492      50.662991      82.39077      -3857.9071     -5278.5945     -6293.3307     -1.796147      -3525.771     
       240  -3525.7711      12.930492      50.662991      82.390911     -3858.2952     -5278.322      -6294.7299     -1.8336446     -3525.7711    
       250  -3525.7711      12.930492      50.662991      82.390988     -3858.4947     -5278.144      -6295.6295     -1.7105833     -3525.7711    
       260  -3525.7711      12.930492      50.662991      82.39102      -3858.5753     -5278.075      -6296.1009     -1.5497916     -3525.7711    
       270  -3525.7711      12.930492      50.662991      82.39103      -3858.6062     -5278.0968     -6296.2884     -1.4335267     -3525.7711    
       280  -3525.7711      12.930492      50.662991      82.391032     -3858.6304     -5278.1915     -6296.2984     -1.4012061     -3525.7711    
       290  -3525.7711      12.930492      50.662991      82.391031     -3858.6657     -5278.3511     -6296.1778     -1.4681282     -3525.7711    
       300  -3525.7711      12.930492      50.662991      82.391028     -3858.7101     -5278.5722     -6295.9238     -1.6341638     -3525.7711    
       310  -3525.7711      12.930492      50.662991      82.391018     -3858.7417     -5278.8447     -6295.5006     -1.8796824     -3525.7711    
       320  -3525.7711      12.930492      50.662991      82.390994     -3858.7201     -5279.1374     -6294.8673     -2.1557079     -3525.7711    
       330  -3525.7711      12.930492      50.662991      82.390947     -3858.6008     -5279.3915     -6294.0256     -2.3852259     -3525.7711    
       340  -3525.7711      12.930492      50.662991      82.390879     -3858.3649     -5279.5394     -6293.0606     -2.4946881     -3525.7711    
       350  -3525.7712      12.930492      50.662991      82.3908       -3858.0435     -5279.5455     -6292.1219     -2.4631658     -3525.7712    
       360  -3525.7712      12.930492      50.662991      82.390727     -3857.7028     -5279.427      -6291.3429     -2.3386087     -3525.7712    
       370  -3525.7712      12.930492      50.662991      82.390674     -3857.4068     -5279.2328     -6290.7841     -2.2034205     -3525.7712    
       380  -3525.7712      12.930492      50.662991      82.390648     -3857.1949     -5279.0089     -6290.4434     -2.1325567     -3525.7712    
       390  -3525.7712      12.930492      50.662991      82.390653     -3857.0854     -5278.7822     -6290.2965     -2.1774532     -3525.7712    
       400  -3525.7712      12.930492      50.662991      82.39069      -3857.0848     -5278.5616     -6290.3255     -2.3672216     -3525.7712    
       410  -3525.7712      12.930492      50.662991      82.390762     -3857.1917     -5278.3456     -6290.5227     -2.7067717     -3525.7712    
       420  -3525.7712      12.930492      50.662991      82.390864     -3857.3889     -5278.1313     -6290.873      -3.1622412     -3525.7712    
       430  -3525.7712      12.930492      50.662991      82.39098      -3857.63       -5277.9252     -6291.3202     -3.6445514     -3525.7712    
       440  -3525.7712      12.930492      50.662991      82.391081     -3857.842      -5277.7511     -6291.745      -4.0298529     -3525.7712    
       450  -3525.7712      12.930492      50.662991      82.391137     -3857.962      -5277.6474     -6291.9983     -4.2402981     -3525.7712    
       460  -3525.7712      12.930492      50.662991      82.391134     -3857.9793     -5277.648      -6291.9753     -4.3147822     -3525.7712    
       470  -3525.7713      12.930492      50.662991      82.391073     -3857.9293     -5277.7643     -6291.6413     -4.3823039     -3525.7713    
       480  -3525.7713      12.930492      50.662991      82.390963     -3857.8486     -5277.9824     -6290.9836     -4.5799058     -3525.7713    
       490  -3525.7713      12.930492      50.662991      82.390797     -3857.7329     -5278.2557     -6289.9511     -4.9917973     -3525.7713    
       500  -3525.7713      12.930492      50.662991      82.390554     -3857.5109     -5278.4794     -6288.446      -5.6072999     -3525.7713    
       510  -3525.7713      12.930492      50.662991      82.390211     -3857.0576     -5278.4728     -6286.4078     -6.2921468     -3525.7713    
       520  -3525.7714      12.930492      50.662991      82.389779     -3856.2862     -5278.0443     -6283.9764     -6.8377528     -3525.7714    
       530  -3525.7714      12.930492      50.662991      82.38933      -3855.286      -5277.1551     -6281.5564     -7.1466329     -3525.7714    
       540  -3525.7714      12.930492      50.662991      82.388973     -3854.3452     -5276.01       -6279.6303     -7.3954629     -3525.7714    
       550  -3525.7715      12.930492      50.662991      82.388825     -3853.9109     -5275.0022     -6278.5815     -8.1490916     -3525.7715    
       560  -3525.7715      12.930492      50.662991      82.389124     -3855.0159     -5274.8272     -6278.9758     -11.244681     -3525.7715    
       570  -3525.7716      12.930492      50.662991      82.390208     -3859.2118     -5276.286      -6281.6152     -19.73419      -3525.7716    
       580  -3525.7721      12.930492      50.662991      82.391329     -3864.6468     -5279.2767     -6282.4224     -32.241214     -3525.7721    
       590  -3525.7729      12.930492      50.662991      82.387923     -3849.4738     -5271.4105     -6275.6157     -1.3953529     -3525.7729    
       600  -3525.7731      12.930492      50.662991      82.38863      -3851.3215     -5272.9807     -6278.6557     -2.3281145     -3525.7731    
       610  -3525.7733      12.930492      50.662991      82.388678     -3850.9001     -5272.1371     -6279.3751     -1.188209      -3525.7733    
       620  -3525.7733      12.930492      50.662991      82.38843      -3850.1182     -5271.74       -6278.1079     -0.50668158    -3525.7733    
       630  -3525.7733      12.930492      50.662991      82.388384     -3850.2533     -5271.7634     -6278.7684     -0.22811729    -3525.7733    
       640  -3525.7734      12.930492      50.662991      82.388358     -3850.273      -5271.712      -6279.0889     -0.018001456   -3525.7734    
       650  -3525.7734      12.930492      50.662991      82.388396     -3850.4067     -5271.7629     -6279.144      -0.31336577    -3525.7734    
       660  -3525.7734      12.930492      50.662991      82.3884       -3850.4259     -5271.694      -6279.1166     -0.46725752    -3525.7734    
       670  -3525.7734      12.930492      50.662991      82.388377     -3850.3433     -5271.6292     -6278.9948     -0.40589163    -3525.7734    
       680  -3525.7734      12.930492      50.662991      82.388371     -3850.328      -5271.659      -6278.865      -0.45994351    -3525.7734    
       690  -3525.7734      12.930492      50.662991      82.388376     -3850.326      -5271.7082     -6278.6953     -0.57436077    -3525.7734    
       700  -3525.7734      12.930492      50.662991      82.388371     -3850.2542     -5271.6495     -6278.5679     -0.54511997    -3525.7734    
       710  -3525.7734      12.930492      50.662991      82.388372     -3850.2288     -5271.5771     -6278.5645     -0.54475475    -3525.7734    
       720  -3525.7734      12.930492      50.662991      82.388377     -3850.2643     -5271.5934     -6278.5996     -0.59993676    -3525.7734    
       730  -3525.7734      12.930492      50.662991      82.388377     -3850.3079     -5271.7072     -6278.5884     -0.62821439    -3525.7734    
       740  -3525.7734      12.930492      50.662991      82.388362     -3850.2673     -5271.7354     -6278.5319     -0.53459976    -3525.7734    
       750  -3525.7734      12.930492      50.662991      82.388346     -3850.2047     -5271.6416     -6278.477      -0.49547923    -3525.7734    
       760  -3525.7734      12.930492      50.662991      82.38831      -3850.1032     -5271.514      -6278.315      -0.4806779     -3525.7734    
       770  -3525.7734      12.930492      50.662991      82.388267     -3849.9892     -5271.4579     -6278.0914     -0.41808541    -3525.7734    
       780  -3525.7734      12.930492      50.662991      82.388242     -3849.9161     -5271.4226     -6277.9282     -0.39770743    -3525.7734    
       790  -3525.7734      12.930492      50.662991      82.388226     -3849.8406     -5271.3518     -6277.8253     -0.34470716    -3525.7734    
       800  -3525.7734      12.930492      50.662991      82.388209     -3849.7777     -5271.3123     -6277.7249     -0.29600005    -3525.7734    
       810  -3525.7734      12.930492      50.662991      82.388195     -3849.7418     -5271.3063     -6277.6483     -0.27072204    -3525.7734    
       820  -3525.7734      12.930492      50.662991      82.388193     -3849.7354     -5271.3152     -6277.6374     -0.25363494    -3525.7734    
       830  -3525.7734      12.930492      50.662991      82.388208     -3849.7874     -5271.3747     -6277.7169     -0.27053518    -3525.7734    
       840  -3525.7734      12.930492      50.662991      82.388227     -3849.8578     -5271.4252     -6277.8876     -0.26049826    -3525.7734    
       850  -3525.7734      12.930492      50.662991      82.388252     -3849.9533     -5271.4595     -6278.1441     -0.25615168    -3525.7734    
       860  -3525.7734      12.930492      50.662991      82.388267     -3850.0008     -5271.5022     -6278.2918     -0.20835745    -3525.7734    
       870  -3525.7734      12.930492      50.662991      82.388273     -3850.0181     -5271.5266     -6278.3383     -0.18941697    -3525.7734    
       880  -3525.7734      12.930492      50.662991      82.388278     -3850.0223     -5271.5036     -6278.3745     -0.18880724    -3525.7734    
       890  -3525.7734      12.930492      50.662991      82.388287     -3850.0219     -5271.5075     -6278.3749     -0.18312109    -3525.7734    
       900  -3525.7734      12.930492      50.662991      82.388299     -3850.0329     -5271.5493     -6278.3585     -0.19088921    -3525.7734    
       910  -3525.7734      12.930492      50.662991      82.388303     -3850.0305     -5271.5333     -6278.3845     -0.17368563    -3525.7734    
       920  -3525.7734      12.930492      50.662991      82.388307     -3850.0355     -5271.5015     -6278.4387     -0.16628745    -3525.7734    
       930  -3525.7734      12.930492      50.662991      82.388311     -3850.0393     -5271.513      -6278.4587     -0.14603532    -3525.7734    
       940  -3525.7734      12.930492      50.662991      82.388316     -3850.0557     -5271.5275     -6278.486      -0.15370443    -3525.7734    
       950  -3525.7734      12.930492      50.662991      82.388306     -3850.0465     -5271.4968     -6278.4963     -0.14626388    -3525.7734    
       960  -3525.7734      12.930492      50.662991      82.388287     -3850.0076     -5271.4844     -6278.4122     -0.12626168    -3525.7734    
       970  -3525.7734      12.930492      50.662991      82.388276     -3849.9675     -5271.4839     -6278.2935     -0.12519469    -3525.7734    
       980  -3525.7734      12.930492      50.662991      82.388265     -3849.9168     -5271.4323     -6278.2153     -0.10282935    -3525.7734    
       990  -3525.7734      12.930492      50.662991      82.388254     -3849.8871     -5271.392      -6278.168      -0.10120815    -3525.7734    
      1000  -3525.7734      12.930492      50.662991      82.38824      -3849.8597     -5271.3817     -6278.0969     -0.10050527    -3525.7734    
      1010  -3525.7734      12.930492      50.662991      82.388234     -3849.8479     -5271.3633     -6278.0897     -0.090777473   -3525.7734    
      1020  -3525.7734      12.930492      50.662991      82.388239     -3849.8695     -5271.3413     -6278.1853     -0.082016723   -3525.7734    
      1030  -3525.7734      12.930492      50.662991      82.388251     -3849.9089     -5271.3605     -6278.2939     -0.072100477   -3525.7734    
      1040  -3525.7734      12.930492      50.662991      82.38826      -3849.9376     -5271.409      -6278.3358     -0.0678311     -3525.7734    
      1050  -3525.7734      12.930492      50.662991      82.388264     -3849.943      -5271.4385     -6278.3225     -0.067908042   -3525.7734    
      1060  -3525.7734      12.930492      50.662991      82.388261     -3849.9264     -5271.4298     -6278.2828     -0.066574702   -3525.7734    
      1070  -3525.7734      12.930492      50.662991      82.388256     -3849.9069     -5271.4107     -6278.2373     -0.072738301   -3525.7734    
      1080  -3525.7734      12.930492      50.662991      82.388252     -3849.8849     -5271.3923     -6278.1993     -0.062951453   -3525.7734    
      1090  -3525.7734      12.930492      50.662991      82.388251     -3849.8757     -5271.3802     -6278.1825     -0.064465217   -3525.7734    
      1100  -3525.7734      12.930492      50.662991      82.388249     -3849.8686     -5271.3664     -6278.1643     -0.074996339   -3525.7734    
      1110  -3525.7734      12.930492      50.662991      82.388245     -3849.8567     -5271.3559     -6278.1429     -0.071355171   -3525.7734    
      1120  -3525.7734      12.930492      50.662991      82.388244     -3849.8509     -5271.3554     -6278.1352     -0.062148824   -3525.7734    
      1130  -3525.7734      12.930492      50.662991      82.388248     -3849.8533     -5271.3613     -6278.1413     -0.057257048   -3525.7734    
      1140  -3525.7734      12.930492      50.662991      82.388252     -3849.8538     -5271.3639     -6278.1433     -0.054205072   -3525.7734    
      1150  -3525.7734      12.930492      50.662991      82.38825      -3849.8474     -5271.3591     -6278.1255     -0.057686062   -3525.7734    
      1160  -3525.7734      12.930492      50.662991      82.388243     -3849.8283     -5271.3518     -6278.0814     -0.051621561   -3525.7734    
      1170  -3525.7734      12.930492      50.662991      82.388237     -3849.8145     -5271.357      -6278.0417     -0.044874859   -3525.7734    
      1180  -3525.7734      12.930492      50.662991      82.388236     -3849.8138     -5271.3683     -6278.0287     -0.044433872   -3525.7734    
      1190  -3525.7734      12.930492      50.662991      82.388239     -3849.8223     -5271.3696     -6278.0543     -0.043104174   -3525.7734    
      1200  -3525.7734      12.930492      50.662991      82.388243     -3849.8339     -5271.366      -6278.0966     -0.039134976   -3525.7734    
      1210  -3525.7734      12.930492      50.662991      82.388245     -3849.8448     -5271.374      -6278.1247     -0.035715864   -3525.7734    
      1220  -3525.7734      12.930492      50.662991      82.388246     -3849.8537     -5271.3903     -6278.135      -0.035848673   -3525.7734    
      1230  -3525.7734      12.930492      50.662991      82.388246     -3849.8588     -5271.3979     -6278.1418     -0.036844714   -3525.7734    
      1240  -3525.7734      12.930492      50.662991      82.388245     -3849.8582     -5271.3916     -6278.1481     -0.034838096   -3525.7734    
      1250  -3525.7734      12.930492      50.662991      82.388244     -3849.8577     -5271.3889     -6278.1479     -0.036422827   -3525.7734    
      1260  -3525.7734      12.930492      50.662991      82.388243     -3849.8561     -5271.3927     -6278.141      -0.034538272   -3525.7734    
      1270  -3525.7734      12.930492      50.662991      82.388244     -3849.8567     -5271.3902     -6278.1456     -0.034207741   -3525.7734    
      1280  -3525.7734      12.930492      50.662991      82.388244     -3849.857      -5271.3754     -6278.1647     -0.030785076   -3525.7734    
      1290  -3525.7734      12.930492      50.662991      82.388245     -3849.8591     -5271.3649     -6278.1832     -0.029362472   -3525.7734    
      1300  -3525.7734      12.930492      50.662991      82.388245     -3849.862      -5271.369      -6278.1882     -0.028893406   -3525.7734    
      1310  -3525.7734      12.930492      50.662991      82.388245     -3849.8635     -5271.3811     -6278.1824     -0.027006614   -3525.7734    
      1320  -3525.7734      12.930492      50.662991      82.388245     -3849.865      -5271.389      -6278.1805     -0.025487061   -3525.7734    
      1330  -3525.7734      12.930492      50.662991      82.388247     -3849.8698     -5271.3931     -6278.1889     -0.027316884   -3525.7734    
      1340  -3525.7734      12.930492      50.662991      82.388248     -3849.8727     -5271.3947     -6278.1989     -0.024553676   -3525.7734    
      1350  -3525.7734      12.930492      50.662991      82.38825      -3849.8749     -5271.3953     -6278.2051     -0.024105263   -3525.7734    
      1360  -3525.7734      12.930492      50.662991      82.388251     -3849.8756     -5271.3918     -6278.2091     -0.026018519   -3525.7734    
      1370  -3525.7734      12.930492      50.662991      82.38825      -3849.8732     -5271.3846     -6278.2105     -0.024484067   -3525.7734    
      1380  -3525.7734      12.930492      50.662991      82.38825      -3849.8725     -5271.3825     -6278.2114     -0.023451201   -3525.7734    
      1390  -3525.7734      12.930492      50.662991      82.388251     -3849.8744     -5271.3877     -6278.212      -0.02355156    -3525.7734    
      1400  -3525.7734      12.930492      50.662991      82.388252     -3849.8773     -5271.3962     -6278.2116     -0.024053754   -3525.7734    
      1410  -3525.7734      12.930492      50.662991      82.388252     -3849.8777     -5271.4013     -6278.2091     -0.022717977   -3525.7734    
      1420  -3525.7734      12.930492      50.662991      82.388252     -3849.877      -5271.4023     -6278.2059     -0.022907663   -3525.7734    
      1430  -3525.7734      12.930492      50.662991      82.388252     -3849.8766     -5271.4007     -6278.2038     -0.025344535   -3525.7734    
      1440  -3525.7734      12.930492      50.662991      82.388251     -3849.8742     -5271.3951     -6278.2028     -0.024819287   -3525.7734    
      1450  -3525.7734      12.930492      50.662991      82.388251     -3849.8706     -5271.388      -6278.2009     -0.022851922   -3525.7734    
      1460  -3525.7734      12.930492      50.662991      82.38825      -3849.8664     -5271.3818     -6278.1948     -0.022504879   -3525.7734    
      1470  -3525.7734      12.930492      50.662991      82.388248     -3849.8601     -5271.3774     -6278.1842     -0.018913587   -3525.7734    
      1480  -3525.7734      12.930492      50.662991      82.388247     -3849.8564     -5271.3762     -6278.1749     -0.018125316   -3525.7734    
      1490  -3525.7734      12.930492      50.662991      82.388246     -3849.8538     -5271.3768     -6278.1665     -0.018079275   -3525.7734    
      1500  -3525.7734      12.930492      50.662991      82.388246     -3849.8516     -5271.3785     -6278.1596     -0.016553906   -3525.7734    
      1510  -3525.7734      12.930492      50.662991      82.388245     -3849.8506     -5271.3814     -6278.1542     -0.016211651   -3525.7734    
      1520  -3525.7734      12.930492      50.662991      82.388245     -3849.8491     -5271.3815     -6278.1512     -0.014742018   -3525.7734    
      1530  -3525.7734      12.930492      50.662991      82.388244     -3849.8482     -5271.3779     -6278.1524     -0.014316299   -3525.7734    
      1540  -3525.7734      12.930492      50.662991      82.388244     -3849.8473     -5271.3734     -6278.1552     -0.01327134    -3525.7734    
      1550  -3525.7734      12.930492      50.662991      82.388244     -3849.8475     -5271.3726     -6278.1566     -0.013271216   -3525.7734    
      1560  -3525.7734      12.930492      50.662991      82.388245     -3849.8488     -5271.3756     -6278.1563     -0.014445125   -3525.7734    
      1570  -3525.7734      12.930492      50.662991      82.388245     -3849.8495     -5271.3776     -6278.1564     -0.014549924   -3525.7734    
      1580  -3525.7734      12.930492      50.662991      82.388245     -3849.8505     -5271.3772     -6278.1593     -0.014895579   -3525.7734    
      1590  -3525.7734      12.930492      50.662991      82.388246     -3849.8516     -5271.3776     -6278.1624     -0.014861226   -3525.7734    
      1600  -3525.7734      12.930492      50.662991      82.388246     -3849.8531     -5271.3817     -6278.1633     -0.014340509   -3525.7734    
      1610  -3525.7734      12.930492      50.662991      82.388247     -3849.8553     -5271.3869     -6278.1644     -0.014586418   -3525.7734    
      1620  -3525.7734      12.930492      50.662991      82.388247     -3849.8571     -5271.3874     -6278.1696     -0.014249822   -3525.7734    
      1630  -3525.7734      12.930492      50.662991      82.388247     -3849.8584     -5271.3836     -6278.1781     -0.013385245   -3525.7734    
      1640  -3525.7734      12.930492      50.662991      82.388248     -3849.8602     -5271.3817     -6278.1856     -0.013308551   -3525.7734    
      1650  -3525.7734      12.930492      50.662991      82.388248     -3849.8616     -5271.3847     -6278.1878     -0.012261375   -3525.7734    
      1660  -3525.7734      12.930492      50.662991      82.388248     -3849.8622     -5271.389      -6278.1864     -0.011176891   -3525.7734    
      1670  -3525.7734      12.930492      50.662991      82.388248     -3849.8619     -5271.3903     -6278.1855     -0.0099606714  -3525.7734    
      1680  -3525.7734      12.930492      50.662991      82.388248     -3849.8618     -5271.389      -6278.1866     -0.0096497103  -3525.7734    
      1690  -3525.7734      12.930492      50.662991      82.388248     -3849.8622     -5271.3882     -6278.1882     -0.010370199   -3525.7734    
      1700  -3525.7734      12.930492      50.662991      82.388247     -3849.8622     -5271.3889     -6278.1879     -0.0098392092  -3525.7734    
      1710  -3525.7734      12.930492      50.662991      82.388247     -3849.8618     -5271.3894     -6278.1868     -0.0093922196  -3525.7734    
      1720  -3525.7734      12.930492      50.662991      82.388247     -3849.8607     -5271.3876     -6278.1858     -0.0087751396  -3525.7734    
      1730  -3525.7734      12.930492      50.662991      82.388246     -3849.8592     -5271.3847     -6278.1845     -0.008468581   -3525.7734    
      1740  -3525.7734      12.930492      50.662991      82.388246     -3849.8576     -5271.3833     -6278.1809     -0.0086634698  -3525.7734    
      1750  -3525.7734      12.930492      50.662991      82.388245     -3849.8559     -5271.3839     -6278.1756     -0.0082690461  -3525.7734    
      1760  -3525.7734      12.930492      50.662991      82.388245     -3849.8548     -5271.385      -6278.1712     -0.0082006077  -3525.7734    
      1767  -3525.7734      12.930492      50.662991      82.388244     -3849.8491     -5271.382      -6278.167       0.0016645428  -3525.7734    
Loop time of 16.0351 on 16 procs for 1767 steps with 2292 atoms

93.3% CPU use with 16 MPI tasks x no OpenMP threads

Minimization stats:
  Stopping criterion = energy tolerance
  Energy initial, next-to-last, final = 
      -3524.3494440853  -3525.77339119962  -3525.77339119962
  Force two-norm initial, final = 245.20409 0.00013798772
  Force max component initial, final = 245.20409 5.6721532e-05
  Final line search alpha, max atom move = 0.37159362 2.1077359e-05
  Iterations, force evaluations = 1767 3422

MPI task timing breakdown:
Section |  min time  |  avg time  |  max time  |%varavg| %total
---------------------------------------------------------------
Pair    | 14.221     | 14.673     | 15.179     |   6.3 | 91.51
Neigh   | 0          | 0          | 0          |   0.0 |  0.00
Comm    | 0.39206    | 0.88759    | 1.3342     |  25.9 |  5.54
Output  | 0.10533    | 0.11951    | 0.1545     |   3.3 |  0.75
Modify  | 0          | 0          | 0          |   0.0 |  0.00
Other   |            | 0.3547     |            |       |  2.21

Nlocal:         143.25 ave         156 max         136 min
Histogram: 2 0 4 0 7 0 2 0 0 1
Nghost:           1075 ave        1102 max        1051 min
Histogram: 1 2 2 1 1 5 2 1 0 1
Neighs:           6179 ave        6696 max        5772 min
Histogram: 2 0 1 4 4 2 1 1 0 1
FullNghs:        12358 ave       13388 max       11616 min
Histogram: 2 0 4 1 4 2 2 0 0 1

Total # of neighbors = 197728
Ave neighs/atom = 86.268761
Neighbor list builds = 0
Dangerous builds = 0
Directory 2: GB energy = 300.022506869714 mJ/m^2
New minimum energy found at directory 2: 300.022506869714 mJ/m^2
Trying to read file: /home/saurav/Desktop/STGB/new/cc_3/1-210/lammps/lammps_0/3/coords.fulldata
Reading data file ...
  orthogonal box = (0 0 -41.670379) to (12.930492 50.662991 41.670379)
  1 by 4 by 4 MPI processor grid
  reading atoms ...
  2312 atoms
  read_data CPU = 0.007 seconds
Neighbor list info ...
  update: every = 1 steps, delay = 0 steps, check = yes
  max neighbors/atom: 2000, page size: 100000
  master list distance cutoff = 8
  ghost atom cutoff = 8
  binsize = 4, bins = 4 13 21
  3 neighbor lists, perpetual/occasional/extra = 2 1 0
  (1) pair meam/c, perpetual
      attributes: full, newton on
      pair build: full/bin/atomonly
      stencil: full/bin/3d
      bin: standard
  (2) pair meam/c, perpetual, half/full from (1)
      attributes: half, newton on
      pair build: halffull/newton
      stencil: none
      bin: none
  (3) compute centro/atom, occasional, copy from (1)
      attributes: full, newton on
      pair build: copy
      stencil: none
      bin: none
WARNING: Dump 1 includes no atom IDs and is not sorted by ID. This may complicate post-processing tasks or visualization (../dump.cpp:221)
Setting up cg style minimization ...
  Unit style    : metal
  Current step  : 0
Per MPI rank memory allocation (min/avg/max) = 10.05 | 10.06 | 10.07 Mbytes
   Step         PotEng           Lx             Ly             Lz           Press           Pxx            Pyy            Pzz          c_eatoms   
[...]
       710  -3549.3894      12.930492      50.662991      83.020179     -3077.8596     -4318.1286     -4915.4624      0.012284554   -3549.3894    
       720  -3549.3894      12.930492      50.662991      83.02019      -3077.8975     -4318.2592     -4915.4479      0.014499563   -3549.3894    
       730  -3549.3894      12.930492      50.662991      83.020191     -3077.8889     -4318.3039     -4915.3806      0.017678827   -3549.3894    
       740  -3549.3894      12.930492      50.662991      83.020198     -3077.9182     -4318.3348     -4915.4396      0.019691749   -3549.3894    
       750  -3549.3894      12.930492      50.662991      83.0202       -3077.9094     -4318.3037     -4915.4453      0.020884189   -3549.3894    
       760  -3549.3894      12.930492      50.662991      83.020207     -3077.9288     -4318.3715     -4915.4367      0.021701617   -3549.3894    
       770  -3549.3894      12.930492      50.662991      83.020214     -3077.9423     -4318.4456     -4915.406       0.024503753   -3549.3894    
       780  -3549.3894      12.930492      50.662991      83.020218     -3077.9539     -4318.4447     -4915.4402      0.023278356   -3549.3894    
       790  -3549.3894      12.930492      50.662991      83.020222     -3077.9793     -4318.474      -4915.4839      0.019883881   -3549.3894    
       800  -3549.3894      12.930492      50.662991      83.020221     -3077.9803     -4318.4736     -4915.4859      0.018462297   -3549.3894    
       810  -3549.3894      12.930492      50.662991      83.020219     -3077.9718     -4318.4541     -4915.4798      0.018550071   -3549.3894    
       820  -3549.3894      12.930492      50.662991      83.02022      -3077.9802     -4318.4946     -4915.4634      0.017469317   -3549.3894    
       830  -3549.3894      12.930492      50.662991      83.020223     -3077.9975     -4318.5513     -4915.4598      0.018662803   -3549.3894    
       840  -3549.3894      12.930492      50.662991      83.020226     -3078.0095     -4318.5564     -4915.4891      0.016930691   -3549.3894    
       850  -3549.3894      12.930492      50.662991      83.020227     -3078.0102     -4318.5249     -4915.5237      0.018113534   -3549.3894    
       860  -3549.3894      12.930492      50.662991      83.020229     -3078.0136     -4318.517      -4915.5408      0.016956218   -3549.3894    
       870  -3549.3894      12.930492      50.662991      83.020232     -3078.0174     -4318.5234     -4915.5468      0.018162649   -3549.3894    
       880  -3549.3894      12.930492      50.662991      83.020233     -3078.0151     -4318.5105     -4915.5517      0.016755793   -3549.3894    
       890  -3549.3894      12.930492      50.662991      83.020232     -3078.0032     -4318.491      -4915.5352      0.016760696   -3549.3894    
       900  -3549.3894      12.930492      50.662991      83.020231     -3077.9927     -4318.4958     -4915.4965      0.014316715   -3549.3894    
       910  -3549.3894      12.930492      50.662991      83.020229     -3077.9855     -4318.5116     -4915.4588      0.014055035   -3549.3894    
       920  -3549.3894      12.930492      50.662991      83.020227     -3077.9772     -4318.5089     -4915.436       0.013330749   -3549.3894    
       930  -3549.3894      12.930492      50.662991      83.020224     -3077.9647     -4318.4801     -4915.4274      0.013540105   -3549.3894    
       940  -3549.3894      12.930492      50.662991      83.020222     -3077.9552     -4318.4499     -4915.4277      0.011962001   -3549.3894    
       950  -3549.3894      12.930492      50.662991      83.020221     -3077.957      -4318.4403     -4915.4412      0.010365931   -3549.3894    
       960  -3549.3894      12.930492      50.662991      83.020223     -3077.9669     -4318.4379     -4915.4729      0.010000595   -3549.3894    
       970  -3549.3894      12.930492      50.662991      83.020224     -3077.977      -4318.4321     -4915.508       0.009083534   -3549.3894    
       980  -3549.3894      12.930492      50.662991      83.020225     -3077.982      -4318.4279     -4915.5271      0.0089824084  -3549.3894    
       990  -3549.3894      12.930492      50.662991      83.020225     -3077.9854     -4318.4363     -4915.5283      0.0082340274  -3549.3894    
      1000  -3549.3894      12.930492      50.662991      83.020225     -3077.9905     -4318.4547     -4915.5252      0.0084578704  -3549.3894    
      1010  -3549.3894      12.930492      50.662991      83.020225     -3077.9978     -4318.4702     -4915.5312      0.0078742816  -3549.3894    
      1020  -3549.3894      12.930492      50.662991      83.020225     -3078.0011     -4318.47       -4915.5407      0.0072265055  -3549.3894    
      1030  -3549.3894      12.930492      50.662991      83.020224     -3077.9982     -4318.4602     -4915.5422      0.0077760539  -3549.3894    
      1040  -3549.3894      12.930492      50.662991      83.020223     -3077.9929     -4318.4535     -4915.5322      0.0071719943  -3549.3894    
      1050  -3549.3894      12.930492      50.662991      83.020222     -3077.9877     -4318.4515     -4915.5189      0.007524468   -3549.3894    
      1060  -3549.3894      12.930492      50.662991      83.020221     -3077.9827     -4318.446      -4915.5099      0.007748594   -3549.3894    
      1070  -3549.3894      12.930492      50.662991      83.02022      -3077.9784     -4318.4347     -4915.5078      0.0073935489  -3549.3894    
      1080  -3549.3894      12.930492      50.662991      83.02022      -3077.9747     -4318.4242     -4915.5072      0.0073248388  -3549.3894    
      1090  -3549.3894      12.930492      50.662991      83.02022      -3077.9746     -4318.4236     -4915.5067      0.0065306679  -3549.3894    
      1100  -3549.3894      12.930492      50.662991      83.020222     -3077.978      -4318.4315     -4915.5093      0.0066570518  -3549.3894    
      1110  -3549.3894      12.930492      50.662991      83.020224     -3077.9834     -4318.4412     -4915.5158      0.0068370418  -3549.3894    
      1120  -3549.3894      12.930492      50.662991      83.020225     -3077.9861     -4318.4455     -4915.5197      0.006799283   -3549.3894    
      1130  -3549.3894      12.930492      50.662991      83.020225     -3077.9848     -4318.4461     -4915.5155      0.0071943775  -3549.3894    
      1140  -3549.3894      12.930492      50.662991      83.020225     -3077.9829     -4318.448      -4915.5078      0.0071296822  -3549.3894    
      1150  -3549.3894      12.930492      50.662991      83.020225     -3077.9837     -4318.452      -4915.506       0.006994479   -3549.3894    
      1160  -3549.3894      12.930492      50.662991      83.020225     -3077.9865     -4318.4551     -4915.5106      0.0063303804  -3549.3894    
      1170  -3549.3894      12.930492      50.662991      83.020225     -3077.9869     -4318.4561     -4915.5108      0.0061254602  -3549.3894    
      1180  -3549.3894      12.930492      50.662991      83.020224     -3077.9829     -4318.4581     -4915.4973      0.0065393941  -3549.3894    
      1190  -3549.3894      12.930492      50.662991      83.020222     -3077.9768     -4318.4637     -4915.473       0.0064662876  -3549.3894    
      1200  -3549.3894      12.930492      50.662991      83.02022      -3077.9719     -4318.4705     -4915.452       0.0067845722  -3549.3894    
      1210  -3549.3894      12.930492      50.662991      83.020219     -3077.9709     -4318.4752     -4915.4443      0.006676017   -3549.3894    
      1220  -3549.3894      12.930492      50.662991      83.020219     -3077.9732     -4318.476      -4915.4498      0.0061019432  -3549.3894    
      1230  -3549.3894      12.930492      50.662991      83.02022      -3077.9762     -4318.4761     -4915.4587      0.0061513202  -3549.3894    
      1240  -3549.3894      12.930492      50.662991      83.020221     -3077.9797     -4318.4789     -4915.4659      0.0056797582  -3549.3894    
      1250  -3549.3894      12.930492      50.662991      83.020222     -3077.9835     -4318.4823     -4915.474       0.0058261475  -3549.3894    
      1260  -3549.3894      12.930492      50.662991      83.020224     -3077.9895     -4318.4835     -4915.4917      0.0066997085  -3549.3894    
      1270  -3549.3894      12.930492      50.662991      83.020226     -3077.9969     -4318.4817     -4915.5153      0.0062874221  -3549.3894    
      1280  -3549.3894      12.930492      50.662991      83.020228     -3078.0011     -4318.4812     -4915.5285      0.0062767582  -3549.3894    
      1290  -3549.3894      12.930492      50.662991      83.020229     -3078.0028     -4318.4878     -4915.5272      0.0064276348  -3549.3894    
      1300  -3549.3894      12.930492      50.662991      83.02023      -3078.0044     -4318.5007     -4915.518       0.0053655095  -3549.3894    
      1310  -3549.3894      12.930492      50.662991      83.020231     -3078.007      -4318.5121     -4915.5138      0.0048365315  -3549.3894    
      1320  -3549.3894      12.930492      50.662991      83.020233     -3078.0113     -4318.5196     -4915.519       0.0047108599  -3549.3894    
      1330  -3549.3894      12.930492      50.662991      83.020234     -3078.0156     -4318.5222     -4915.529       0.0044787764  -3549.3894    
      1340  -3549.3894      12.930492      50.662991      83.020235     -3078.0177     -4318.5225     -4915.5351      0.0045194544  -3549.3894    
      1350  -3549.3894      12.930492      50.662991      83.020235     -3078.0172     -4318.5232     -4915.5324      0.004139295   -3549.3894    
      1360  -3549.3894      12.930492      50.662991      83.020235     -3078.0148     -4318.5238     -4915.5243      0.0038357931  -3549.3894    
      1370  -3549.3894      12.930492      50.662991      83.020234     -3078.0109     -4318.5216     -4915.5152      0.0040703696  -3549.3894    
      1380  -3549.3894      12.930492      50.662991      83.020232     -3078.0063     -4318.5151     -4915.5079      0.0040498735  -3549.3894    
      1390  -3549.3894      12.930492      50.662991      83.020231     -3078.0009     -4318.5065     -4915.5003      0.0040678305  -3549.3894    
      1400  -3549.3894      12.930492      50.662991      83.020228     -3077.9935     -4318.4985     -4915.4862      0.0042863043  -3549.3894    
      1410  -3549.3894      12.930492      50.662991      83.020226     -3077.9852     -4318.494      -4915.4657      0.0040129484  -3549.3894    
      1420  -3549.3894      12.930492      50.662991      83.020223     -3077.9784     -4318.4923     -4915.4468      0.0037059216  -3549.3894    
      1430  -3549.3894      12.930492      50.662991      83.020221     -3077.9736     -4318.4902     -4915.4341      0.0036096813  -3549.3894    
      1440  -3549.3894      12.930492      50.662991      83.02022      -3077.9708     -4318.4861     -4915.4299      0.0035752813  -3549.3894    
      1450  -3549.3894      12.930492      50.662991      83.020219     -3077.9697     -4318.4803     -4915.4327      0.0037462631  -3549.3894    
      1460  -3549.3894      12.930492      50.662991      83.020219     -3077.9702     -4318.4745     -4915.4398      0.0036994405  -3549.3894    
      1470  -3549.3894      12.930492      50.662991      83.02022      -3077.9718     -4318.4701     -4915.4488      0.0035025644  -3549.3894    
      1480  -3549.3894      12.930492      50.662991      83.02022      -3077.9743     -4318.4666     -4915.46        0.0035767224  -3549.3894    
      1490  -3549.3894      12.930492      50.662991      83.020221     -3077.9777     -4318.4631     -4915.4736      0.0036654479  -3549.3894    
      1500  -3549.3894      12.930492      50.662991      83.020222     -3077.9809     -4318.4605     -4915.4859      0.0037041113  -3549.3894    
      1510  -3549.3894      12.930492      50.662991      83.020222     -3077.983      -4318.4599     -4915.4929      0.0036987048  -3549.3894    
      1520  -3549.3894      12.930492      50.662991      83.020223     -3077.9837     -4318.4615     -4915.4931      0.0034957534  -3549.3894    
      1530  -3549.3894      12.930492      50.662991      83.020223     -3077.9832     -4318.4636     -4915.4895      0.0033920341  -3549.3894    
      1540  -3549.3894      12.930492      50.662991      83.020223     -3077.9825     -4318.465      -4915.4859      0.003254512   -3549.3894    
      1550  -3549.3894      12.930492      50.662991      83.020223     -3077.9821     -4318.465      -4915.4843      0.0031241693  -3549.3894    
      1560  -3549.3894      12.930492      50.662991      83.020223     -3077.9816     -4318.4643     -4915.4837      0.0033504175  -3549.3894    
      1570  -3549.3894      12.930492      50.662991      83.020223     -3077.981      -4318.4636     -4915.483       0.0034463992  -3549.3894    
      1580  -3549.3894      12.930492      50.662991      83.020223     -3077.9808     -4318.4629     -4915.4829      0.0033283731  -3549.3894    
      1590  -3549.3894      12.930492      50.662991      83.020224     -3077.9812     -4318.4616     -4915.4856      0.0034694333  -3549.3894    
      1600  -3549.3894      12.930492      50.662991      83.020225     -3077.9829     -4318.4603     -4915.4917      0.0033332031  -3549.3894    
      1610  -3549.3894      12.930492      50.662991      83.020225     -3077.9849     -4318.4603     -4915.4976      0.003096671   -3549.3894    
      1620  -3549.3894      12.930492      50.662991      83.020225     -3077.9863     -4318.4624     -4915.4997      0.0032664417  -3549.3894    
      1630  -3549.3894      12.930492      50.662991      83.020225     -3077.9864     -4318.4661     -4915.4963      0.0031631581  -3549.3894    
      1640  -3549.3894      12.930492      50.662991      83.020224     -3077.9853     -4318.4689     -4915.4899      0.0029056424  -3549.3894    
      1650  -3549.3894      12.930492      50.662991      83.020224     -3077.9837     -4318.4693     -4915.4849      0.0029263622  -3549.3894    
      1660  -3549.3894      12.930492      50.662991      83.020224     -3077.9834     -4318.468      -4915.4852      0.0028963892  -3549.3894    
      1670  -3549.3894      12.930492      50.662991      83.020224     -3077.9852     -4318.4665     -4915.4922      0.0030513553  -3549.3894    
      1680  -3549.3894      12.930492      50.662991      83.020225     -3077.9892     -4318.4662     -4915.5047      0.0031579504  -3549.3894    
      1690  -3549.3894      12.930492      50.662991      83.020226     -3077.9931     -4318.4669     -4915.5152      0.0026822575  -3549.3894    
      1700  -3549.3894      12.930492      50.662991      83.020226     -3077.9948     -4318.4668     -4915.5201      0.0026557121  -3549.3894    
      1710  -3549.3894      12.930492      50.662991      83.020226     -3077.9947     -4318.4651     -4915.522       0.0030175434  -3549.3894    
      1720  -3549.3894      12.930492      50.662991      83.020226     -3077.9942     -4318.4624     -4915.5229      0.002740114   -3549.3894    
      1730  -3549.3894      12.930492      50.662991      83.020226     -3077.9939     -4318.4608     -4915.5235      0.0026006378  -3549.3894    
      1740  -3549.3894      12.930492      50.662991      83.020226     -3077.9938     -4318.4606     -4915.5236      0.0027651726  -3549.3894    
      1750  -3549.3894      12.930492      50.662991      83.020226     -3077.9939     -4318.4619     -4915.5224      0.0025251121  -3549.3894    
      1760  -3549.3894      12.930492      50.662991      83.020226     -3077.9935     -4318.4635     -4915.5195      0.0024953959  -3549.3894    
      1770  -3549.3894      12.930492      50.662991      83.020225     -3077.9924     -4318.4648     -4915.5149      0.0026234051  -3549.3894    
      1780  -3549.3894      12.930492      50.662991      83.020225     -3077.9914     -4318.4656     -4915.511       0.0023081935  -3549.3894    
      1790  -3549.3894      12.930492      50.662991      83.020225     -3077.9908     -4318.4657     -4915.5088      0.0022335412  -3549.3894    
      1800  -3549.3894      12.930492      50.662991      83.020225     -3077.9901     -4318.4654     -4915.5072      0.0023917978  -3549.3894    
      1810  -3549.3894      12.930492      50.662991      83.020225     -3077.9894     -4318.4649     -4915.5056      0.0022717687  -3549.3894    
      1820  -3549.3894      12.930492      50.662991      83.020225     -3077.9885     -4318.4643     -4915.5035      0.0021917977  -3549.3894    
      1830  -3549.3894      12.930492      50.662991      83.020224     -3077.9876     -4318.4639     -4915.5012      0.0020986096  -3549.3894    
      1840  -3549.3894      12.930492      50.662991      83.020224     -3077.9871     -4318.4641     -4915.4993      0.0019643655  -3549.3894    
      1850  -3549.3894      12.930492      50.662991      83.020224     -3077.9869     -4318.465      -4915.4978      0.002031919   -3549.3894    
      1860  -3549.3894      12.930492      50.662991      83.020224     -3077.9871     -4318.4666     -4915.4966      0.0019293971  -3549.3894    
      1870  -3549.3894      12.930492      50.662991      83.020224     -3077.9873     -4318.4681     -4915.4955      0.0017566745  -3549.3894    
Loop time of 18.8539 on 16 procs for 1870 steps with 2312 atoms

92.4% CPU use with 16 MPI tasks x no OpenMP threads

Minimization stats:
  Stopping criterion = energy tolerance
  Energy initial, next-to-last, final = 
     -3549.22568069956  -3549.38940901225  -3549.38940901225
  Force two-norm initial, final = 84.772139 0.00013296787
  Force max component initial, final = 84.772139 5.9861044e-05
  Final line search alpha, max atom move = 0.44838477 2.684078e-05
  Iterations, force evaluations = 1870 3703

MPI task timing breakdown:
Section |  min time  |  avg time  |  max time  |%varavg| %total
---------------------------------------------------------------
Pair    | 16.223     | 17.045     | 17.789     |  12.4 | 90.40
Neigh   | 0          | 0          | 0          |   0.0 |  0.00
Comm    | 0.4818     | 1.2236     | 2.0337     |  46.3 |  6.49
Output  | 0.11211    | 0.12749    | 0.16457    |   3.4 |  0.68
Modify  | 0          | 0          | 0          |   0.0 |  0.00
Other   |            | 0.4581     |            |       |  2.43

Nlocal:          144.5 ave         148 max         140 min
Histogram: 3 0 0 0 0 8 0 0 0 5
Nghost:        1076.81 ave        1104 max        1057 min
Histogram: 4 0 1 3 2 1 2 1 1 1
Neighs:        6338.25 ave        6700 max        6028 min
Histogram: 2 0 2 3 3 2 0 2 1 1
FullNghs:      12676.5 ave       13168 max       12032 min
Histogram: 1 1 0 2 1 4 2 3 0 2

Total # of neighbors = 202824
Ave neighs/atom = 87.726644
Neighbor list builds = 0
Dangerous builds = 0
unfix 1
undump 2

# ---------------- GB Energy Calculation ----------------
variable esum equal "v_minimumenergy * count(all)"
variable xseng equal "c_eatoms - v_esum"
variable gbarea equal "lx * ly * 2"
variable gbe equal "v_xseng / v_gbarea"
variable gbemJm2 equal "v_gbe * v_conversionFactor"
variable gbernd equal round(v_gbemJm2)

# ---------------- Compare and Save Result ----------------
print "Directory ${dirIndex}: GB energy = ${gbemJm2} mJ/m^2"
Directory 79: GB energy = 390.073276147333 mJ/m^2
shell echo "Directory ${dirIndex}: ${gbemJm2} mJ/m^2" >> output/GB_energy_results.txt

# Check for minimum GB energy
if "${gbemJm2} < ${minEnergy}" then "jump SELF update_min"

jump SELF continue_loop
next dirIndex
jump SELF loop_start

# ---------------- After Loop ----------------
label done
print "==============================="
===============================
print "Minimum GB energy = ${minEnergy} mJ/m^2 found in directory ${minIndex}"
Minimum GB energy = 292.750092343412 mJ/m^2 found in directory 56
shell echo "===============================" >> output/GB_energy_results.txt
shell echo "Minimum GB energy = ${minEnergy} mJ/m^2 found in directory ${minIndex}" >> output/GB_energy_results.txt
print "All done!"
All done!
Total wall time: 0:29:40
